11
Properties=species:S:1:pos:R:3 energy=-7764.1767578125 pbc="F F F"
C        0.06150000       1.48870003       0.06140000
C       -0.06700000       0.01200000      -0.00220000
C       -1.07239997      -0.85560000      -0.27559999
N       -0.60420001      -2.16310000      -0.18449999
C        0.63880002      -2.02440000       0.13370000
O        1.05040002      -0.74070001       0.26519999
H        0.80419999       1.85889995      -0.65399998
H       -0.89960003       1.95159996      -0.17309999
H        0.36899999       1.82299995       1.05840003
H       -2.09710002      -0.63679999      -0.53079998
H        1.37899995      -2.78999996       0.30530000
11
Properties=species:S:1:pos:R:3 energy=-7763.42041015625 pbc="F F F"
C       -0.02650000       1.46399999       0.01190000
C       -0.02060000       0.01060000      -0.00070000
C       -0.00720000      -1.19449997      -0.01180000
C        0.08430000      -2.64700007      -0.02350000
N       -1.12919998      -3.27449989      -0.03260000
O        1.14349997      -3.24440002      -0.03280000
H        0.99309999       1.86290002       0.01820000
H       -0.53920001       1.86189997      -0.87050003
H       -0.54430002       1.84689999       0.89800000
H       -1.98880005      -2.75909996       0.03570000
H       -1.14590001      -4.28030014       0.00580000
12
Properties=species:S:1:pos:R:3 energy=-6313.7470703125 pbc="F F F"
C       -0.01520000       1.54740000       0.01690000
C       -0.02480000      -0.00110000      -0.04340000
C       -1.39440000      -0.52460003       0.00680000
C       -2.52410007      -0.92769998       0.06470000
C        0.69400001      -0.48949999      -1.22549999
C        1.30050004      -0.86339998      -2.19219995
H        1.01429999       1.91330004       0.01900000
H       -0.53369999       1.96249998      -0.84990001
H       -0.51990002       1.88750005       0.92439997
H        0.50620002      -0.37090001       0.84579998
H       -3.51929998      -1.29550004       0.10980000
H        1.82969999      -1.20570004      -3.04679990
8
Properties=species:S:1:pos:R:3 energy=-8167.46728515625 pbc="F F F"
O       -0.04620000       1.43959999       0.01030000
C        0.03760000       0.03760000       0.00190000
C        0.69190001      -0.48420000      -1.21910000
N        1.19959998      -0.85570002      -2.18689990
C        0.71499997      -0.49730000       1.20449996
N        1.24100006      -0.87910002       2.15840006
H        0.84660000       1.80729997       0.00370000
H       -0.99739999      -0.32420000       0.00980000
9
Properties=species:S:1:pos:R:3 energy=-8741.2109375 pbc="F F F"
O        0.04940000       1.47660005       0.12899999
C        0.01590000       0.08770000       0.06680000
C        0.68190002      -0.42179999      -1.22479999
O        1.14870000       0.36030000      -2.00810003
C        0.69190001      -0.55390000       1.21440005
N        1.22650003      -1.08169997       2.09190011
H        0.59680003       1.75960004      -0.62279999
H       -1.02559996      -0.27550000       0.05830000
H        0.69980001      -1.51629996      -1.37549996
12
Properties=species:S:1:pos:R:3 energy=-8336.1318359375 pbc="F F F"
O        0.02240000      -0.09500000      -0.14880000
C        0.02870000       1.09379995       0.03630000
C        1.25829995       1.96089995       0.03690000
C        1.12769997       3.26410007      -0.79689997
O        1.13540006       4.08879995       0.38150001
C        1.34959996       2.94840002       1.23140001
H       -0.91769999       1.65429997       0.22770000
H        2.14140010       1.35200000      -0.15449999
H        1.98210001       3.46449995      -1.45410001
H        0.20010000       3.37570000      -1.37249994
H        0.56870002       2.85139990       1.99629998
H        2.32960010       2.97009993       1.72259998
14
Properties=species:S:1:pos:R:3 energy=-6347.40283203125 pbc="F F F"
C       -0.00160000       1.47259998       0.00270000
C        0.00830000       0.01690000       0.02390000
C        0.01740000      -1.18830001       0.04120000
C        0.03480000      -2.62290001       0.05810000
C       -0.52100003      -3.38569999       1.25049996
C       -1.26150000      -3.41000009      -0.05410000
H        0.92650002       1.86790001      -0.42550001
H       -0.83200002       1.86129999      -0.59789997
H       -0.10030000       1.88849998       1.01189995
H        0.89749998      -3.07540011      -0.42309999
H        0.01090000      -4.27740002       1.56289995
H       -0.93489999      -2.79730010       2.06060004
H       -2.17849994      -2.83809996      -0.13040000
H       -1.24269998      -4.31850004      -0.64550000
14
Properties=species:S:1:pos:R:3 energy=-7357.68115234375 pbc="F F F"
C        0.06000000       1.53690004       0.00970000
C        1.32410002       0.70529997      -0.00680000
C       -0.01710000       0.04310000       0.00250000
C       -0.61940002      -0.89310002       1.04499996
O       -1.17980003      -1.72399998       0.00410000
C       -0.63929999      -0.88190001      -1.03830004
H       -0.19939999       2.05749989       0.92650002
H       -0.21680000       2.06719995      -0.89630002
H        1.90409994       0.67199999      -0.92400002
H        1.92149997       0.66219997       0.89880002
H        0.09690000      -1.44420004       1.66939998
H       -1.39740002      -0.46100000       1.68910003
H       -1.42939997      -0.44299999      -1.66270006
H        0.06480000      -1.42620003      -1.68219995
14
Properties=species:S:1:pos:R:3 energy=-8369.3720703125 pbc="F F F"
C       -0.01390000       1.52520001       0.01690000
C        1.42850006       2.03679991      -0.03690000
O        2.11439991       1.46949995      -1.14610004
C        2.08030009       0.06800000      -1.09660006
O        0.77850002      -0.45230001      -1.14370000
C        0.00900000      -0.00510000      -0.03430000
H       -0.51410002       1.87409997       0.92729998
H       -0.56639999       1.90820003      -0.84729999
H        1.47449994       3.12150002      -0.16270000
H        1.95480001       1.77849996       0.89870000
H        2.60439992      -0.29740000      -1.98189998
H        2.58909988      -0.28450000      -0.17680000
H        0.43570000      -0.40680000       0.90149999
H       -0.99180001      -0.42649999      -0.15820000
13
Properties=species:S:1:pos:R:3 energy=-9269.8798828125 pbc="F F F"
C        0.00020000       1.40810001       0.03980000
O        0.00480000      -0.01380000       0.00200000
C        0.62250000      -0.62629998       1.03149998
C        0.74180001      -1.98679996       1.18879998
N        1.44169998      -2.12899995       2.37509990
C        1.69970000      -0.88830000       2.85349989
N        1.21500003       0.04870000       2.06100011
H        1.01859999       1.81070006       0.03290000
H       -0.53350002       1.72710001      -0.85720003
H       -0.51139998       1.78190005       0.93290001
H        0.41139999      -2.82279992       0.59930003
H        1.70860004      -3.00040007       2.80019999
H        2.23769999      -0.71899998       3.77360010
14
Properties=species:S:1:pos:R:3 energy=-8833.3544921875 pbc="F F F"
C       -0.00500000       1.51100004      -0.02060000
C       -0.02050000      -0.00210000       0.06480000
O       -0.07020000      -0.59289998       1.11880004
C        0.03040000      -0.75309998      -1.26250005
C        0.00950000      -2.27559996      -1.05910003
C        0.05810000      -2.99930000      -2.32629991
N        0.09700000      -3.55629992      -3.33800006
H        0.89999998       1.85500002      -0.53380001
H       -0.85769999       1.86880004      -0.60860002
H       -0.04440000       1.93830001       0.98159999
H       -0.81389999      -0.43210000      -1.88489997
H        0.92979997      -0.44600001      -1.81019998
H        0.85479999      -2.58119988      -0.43509999
H       -0.89069998      -2.56730008      -0.50980002
17
Properties=species:S:1:pos:R:3 energy=-9438.5859375 pbc="F F F"
O       -0.21120000       1.44920003       0.23810001
C       -0.00560000       0.05150000       0.03430000
C        0.70050001      -0.59539998       1.24489999
C       -0.44549999      -0.80640000       2.24110007
C       -1.57379997      -1.35420001       1.34660006
O       -2.88619995      -1.13499999       1.83879995
C       -1.40149999      -0.60810000       0.00300000
H        0.65350002       1.86670005       0.30919999
H        0.55010003      -0.11250000      -0.89940000
H        1.13269997      -1.55970001       0.94720000
H        1.51859999       0.02290000       1.62899995
H       -0.19270000      -1.46930003       3.07439995
H       -0.76770002       0.15780000       2.64809990
H       -1.40929997      -2.43289995       1.18959999
H       -2.98090005      -1.62600005       2.66109991
H       -2.16219997       0.17170000      -0.07600000
H       -1.51750004      -1.27909994      -0.85110003
15
Properties=species:S:1:pos:R:3 energy=-9407.2490234375 pbc="F F F"
C       -0.36309999       1.47700000       0.02980000
C        0.13500001       0.03600000      -0.02780000
C        1.03260005      -0.35060000      -1.21019995
C        1.87360001      -1.48860002      -0.61629999
O        1.97959995      -1.19879997       0.78890002
C        1.00339997      -0.33370000       1.17789996
O        0.89190000       0.04100000       2.30920005
H        0.47070000       2.18160009      -0.05360000
H       -1.06620002       1.68340003      -0.78219998
H       -0.86299998       1.66209996       0.98360002
H       -0.72689998      -0.64609998       0.01140000
H        0.48379999      -0.65890002      -2.10240006
H        1.67600000       0.49349999      -1.48230004
H        1.38779998      -2.46469998      -0.73580003
H        2.88610005      -1.55110002      -1.01999998
15
Properties=species:S:1:pos:R:3 energy=-9404.4775390625 pbc="F F F"
C       -0.11910000       1.47800004       0.01300000
C        0.09620000       0.00270000       0.07450000
O       -1.06029999      -0.84549999      -0.09940000
C       -0.58370000      -1.74179995       0.94959998
C        0.71899998      -0.97189999       1.07879996
C        1.29419994      -0.79549998      -0.32040000
O        1.22889996      -1.77960002      -1.30229998
H        0.82010001       2.00699997       0.19890000
H       -0.48210001       1.77170002      -0.97850001
H       -0.85570002       1.80200005       0.75510001
H       -1.23529994      -1.67480004       1.82650006
H       -0.52029997      -2.78049994       0.60670000
H        1.27890003      -0.80010003       1.98889995
H        2.23589993      -0.25380000      -0.34630001
H        0.29769999      -1.83430004      -1.55840003
21
Properties=species:S:1:pos:R:3 energy=-7482.6787109375 pbc="F F F"
C       -0.17309999       1.53620005       0.05230000
C       -0.14650001       0.01430000      -0.11000000
C        0.92680001      -0.46930000      -1.09539998
C        0.94730002      -1.97710001      -1.24489999
C        0.02720000      -2.67759991      -2.22000003
C        1.52049994      -2.69039989      -2.44989991
C        2.14030004      -1.96510005      -3.62509990
H        0.78860003       1.91349995       0.41830000
H       -0.37880000       2.03299999      -0.90259999
H       -0.94470000       1.84990001       0.76249999
H        0.02390000      -0.45629999       0.86739999
H       -1.12829995      -0.34020001      -0.44870001
H        0.75529999       0.00510000      -2.06929994
H        1.91139996      -0.11710000      -0.75610000
H        1.09819996      -2.49609995      -0.30010000
H       -0.47130001      -3.59270000      -1.91849995
H       -0.56750000      -2.04780006      -2.87610006
H        2.01250005      -3.63269997      -2.21970010
H        1.60160005      -1.04569995      -3.87120008
H        3.18359995      -1.69439995      -3.42560005
H        2.12829995      -2.59780002      -4.51970005
11
Properties=species:S:1:pos:R:3 energy=-8327.033203125 pbc="F F F"
C        0.03390000      -1.17219996      -0.01890000
C        0.00430000       0.02770000       0.01800000
C       -0.04680000       1.47010005       0.06500000
C        0.54430002       2.18219995       1.23020005
O        1.23099995       2.14429998      -0.00740000
C       -1.12329996       2.09080005      -0.67070001
C       -2.02649999       2.59859991      -1.27769995
H        0.06350000      -2.23340011      -0.05730000
H        0.12410000       3.14569998       1.51289999
H        0.97579998       1.58720005       2.03309989
H       -2.82139993       3.04760003      -1.82079995
13
Properties=species:S:1:pos:R:3 energy=-9373.3525390625 pbc="F F F"
O       -0.32350001       0.42500001      -0.76480001
C        0.10860000       1.04270005       0.18030000
C        1.29530001       1.94330001       0.09690000
C        2.39520001       1.54480004      -0.90590000
C        1.51370001       2.67510009      -1.24140000
C        1.72490001       2.64450002       1.33060002
O        1.18460000       2.54189992       2.40429997
H       -0.35229999       0.98100001       1.18369997
H        3.41810012       1.74230003      -0.60399997
H        2.21799994       0.59410000      -1.39499998
H        0.72289997       2.51130009      -1.96399999
H        1.90240002       3.68589997      -1.18089998
H        2.61739993       3.29979992       1.19330001
15
Properties=species:S:1:pos:R:3 energy=-9405.724609375 pbc="F F F"
C        0.05720000       1.56439996       0.03140000
C       -0.22880000       0.07170000      -0.15700001
C        0.66820002      -0.55860001      -1.21280003
O        2.07800007      -0.56629997      -0.85699999
C        2.19849992      -2.00040007      -0.93199998
C        0.70920002      -2.09260011      -1.28779995
O       -0.07710000      -2.96259999      -1.50349998
H        1.10160005       1.72169995       0.31490001
H       -0.12940000       2.12280011      -0.89230001
H       -0.57760000       1.98810005       0.81489998
H       -0.08970000      -0.46110001       0.79119998
H       -1.26919997      -0.08990000      -0.46410000
H        0.51330000      -0.08100000      -2.19199991
H        2.88459992      -2.33489990      -1.72099996
H        2.49009991      -2.46040010       0.02060000
15
Properties=species:S:1:pos:R:3 energy=-8394.3505859375 pbc="F F F"
C        0.13620000      -1.14510000      -0.32539999
C        0.03440000       0.03840000      -0.14040001
C       -0.09350000       1.47899997       0.09300000
C       -0.64960003       1.80799997       1.51650000
C        0.39660001       2.78040004       2.09400010
C        1.64859998       2.40089989       1.30159998
O        1.17270005       2.14089990      -0.01310000
H        0.22870000      -2.18869996      -0.49869999
H       -0.72990000       1.90779996      -0.68940002
H       -1.65059996       2.24000001       1.46309996
H       -0.70999998       0.89520001       2.11269999
H        0.12370000       3.81809998       1.87969995
H        0.52130002       2.67499995       3.17449999
H        2.39389992       3.19709992       1.23000002
H        2.13129997       1.50750005       1.72880006
15
Properties=species:S:1:pos:R:3 energy=-8394.36328125 pbc="F F F"
C       -0.23559999      -1.19719994      -0.49309999
C       -0.11600000      -0.03630000      -0.20389999
C        0.04990000       1.36199999       0.15290000
C       -0.45699999       1.74160004       1.57560003
C        0.57099998       2.80010009       2.05369997
O        1.46599996       3.03049994       0.96920002
C        1.52030003       1.83790004       0.21570000
H       -0.34570000      -2.22040009      -0.75449997
H       -0.46700001       1.98689997      -0.58429998
H       -1.47669995       2.12980008       1.54260004
H       -0.45539999       0.86460000       2.22609997
H        0.11730000       3.75999999       2.31450009
H        1.12290001       2.43289995       2.93149996
H        2.14319992       1.07130003       0.70459998
H        1.94589996       2.06750011      -0.76349998
16
Properties=species:S:1:pos:R:3 energy=-8864.8125 pbc="F F F"
C        0.01290000       1.59150004      -0.08710000
C       -0.04280000       0.07580000      -0.25490001
C       -1.33609998      -0.54769999       0.23600000
O       -2.27469993       0.11250000       0.63540000
C       -1.41659999      -2.04419994       0.20690000
C       -1.92159998      -2.70260000       1.45609999
N       -2.75489998      -2.65000010       0.26420000
H        0.95260000       1.98959994      -0.47950000
H       -0.81569999       2.07089996      -0.61379999
H       -0.06740000       1.87119997       0.96660000
H        0.07470000      -0.21250001      -1.30980003
H        0.78850001      -0.42080000       0.26499999
H       -0.68889999      -2.56710005      -0.40700001
H       -1.54020000      -3.68479991       1.72019994
H       -2.16210008      -2.04769993       2.28889990
H       -3.41499996      -1.87750006       0.36860001
15
Properties=species:S:1:pos:R:3 energy=-9403.912109375 pbc="F F F"
C       -0.26280001       1.34340000      -0.06150000
O        0.22110000       0.01880000       0.11140000
C        0.75669998      -0.52440000      -1.02900004
C       -0.07180000      -1.00580001      -2.20539999
C        0.83389997      -1.95869994      -1.46710002
O        2.18269992      -1.82149994      -1.92400002
C        2.23149991      -0.45179999      -1.43509996
H        0.54560000       2.04049993      -0.32240000
H       -1.03120005       1.38829994      -0.84469998
H       -0.69910002       1.64789999       0.89200002
H       -1.12600005      -1.11889994      -1.96930003
H        0.15719999      -0.72210002      -3.22939992
H        0.53420001      -2.89580011      -1.01419997
H        2.52950001       0.25960001      -2.21379995
H        2.90030003      -0.37340000      -0.57050002
15
Properties=species:S:1:pos:R:3 energy=-8394.8076171875 pbc="F F F"
C       -0.10880000       1.46410000       0.08800000
C        1.29639995       0.91280001      -0.06580000
C        0.11280000      -0.02020000      -0.05080000
O       -0.07670000      -0.82380003       1.09809995
C       -0.61519998      -2.08800006       0.71030003
C       -0.75040001      -2.01480007      -0.78670001
C       -0.33000001      -0.82590002      -1.20829999
H       -0.40099999       1.81180000       1.07249999
H       -0.55400002       2.00589991      -0.73989999
H        1.82410002       1.07290006      -1.00030005
H        1.92429996       0.89940000       0.81800002
H        0.06030000      -2.89529991       1.03509998
H       -1.58080006      -2.25130010       1.21469998
H       -1.13489997      -2.82629991      -1.39030004
H       -0.29840001      -0.46110001      -2.22659993
16
Properties=species:S:1:pos:R:3 energy=-7853.80126953125 pbc="F F F"
C       -0.08460000       1.57319999       0.04410000
C        0.02380000       0.04180000       0.00560000
C        0.81750000      -0.48930001      -1.17859995
C        1.81200004      -1.30180001      -0.81580001
C        1.88039994      -1.40999997       0.67189997
N        2.17880011      -0.09640000       1.31780005
C        0.77880001      -0.55980003       1.19519997
H        0.90950000       2.01539993       0.14520000
H       -0.54790002       1.95869994      -0.87000000
H       -0.69639999       1.90059996       0.89139998
H       -0.99320000      -0.37720001      -0.01850000
H        0.59310001      -0.18830000      -2.19670010
H        2.50959992      -1.79209995      -1.48430002
H        2.21280003      -2.31800008       1.16369998
H        2.48379993      -0.26830000       2.27480006
H        0.23710001      -0.81290001       2.10050011
17
Properties=species:S:1:pos:R:3 energy=-7415.8310546875 pbc="F F F"
C        0.01510000       1.46829998      -0.06530000
C        1.33399999       0.75739998       0.04720000
C        0.01340000      -0.02930000       0.05560000
C        0.41319999      -0.73290002      -1.26259995
C        0.01550000      -0.08940000      -2.62619996
C        1.36049998       0.71190000      -2.63479996
C        1.74989998       0.06350000      -1.27119994
H       -0.29139999       1.99230003       0.83499998
H       -0.29010001       1.97060001      -0.97780001
H        2.01069999       0.96469998       0.86820000
H       -0.48320001      -0.52109998       0.88419998
H        0.41100001      -1.82169998      -1.20539999
H       -0.05920000      -0.81580001      -3.43930006
H       -0.90090001       0.50709999      -2.62109995
H        2.02710009       0.42719999      -3.45260000
H        1.27219999       1.80180001      -2.63499999
H        2.70889997      -0.45260000      -1.22010005
13
Properties=species:S:1:pos:R:3 energy=-9269.00390625 pbc="F F F"
C        0.04730000       1.49820006       0.03840000
C       -0.07170000       0.01650000       0.05140000
C       -1.13329995      -0.84200001       0.00950000
N       -2.51029992      -0.56989998       0.00200000
C       -0.51950002      -2.12560010       0.07470000
N        0.78649998      -2.04970002       0.14350000
O        1.07780004      -0.69749999       0.14030001
H        0.89069998       1.81140006      -0.58410001
H       -0.86170000       1.95280004      -0.36739999
H        0.20479999       1.90779996       1.04320002
H       -2.71580005       0.39440000      -0.22690000
H       -3.02200007      -1.17130005      -0.63190001
H       -0.99559999      -3.09660006       0.07000000
12
Properties=species:S:1:pos:R:3 energy=-9705.7314453125 pbc="F F F"
N        0.09910000       1.42789996       0.11360000
C        0.00860000       0.02910000       0.00860000
C       -1.04209995      -0.82990003       0.00560000
O       -0.61080003      -2.10739994      -0.03500000
N        0.78570002      -2.11229992      -0.06740000
C        1.13979995      -0.84880000      -0.03810000
N        2.45980000      -0.42829999      -0.11510000
H        0.64990002       1.82389998      -0.64150000
H       -0.80860001       1.87600005       0.11880000
H       -2.11150002      -0.69010001       0.03420000
H        3.11570001      -1.18620002       0.02550000
H        2.65540004       0.34500000       0.50919998
10
Properties=species:S:1:pos:R:3 energy=-9674.1298828125 pbc="F F F"
O       -0.01920000      -0.07660000       0.00350000
C        0.00420000       1.13759995       0.00910000
N       -1.15429997       1.91240001       0.02830000
N       -1.22850001       3.25079989       0.03610000
C       -0.08750000       3.87350011       0.02430000
N        1.15629995       3.28950000       0.00510000
C        1.19780004       1.99609995      -0.00200000
H       -2.04239988       1.42569995       0.03750000
H       -0.12630001       4.95550013       0.03020000
H        2.16219997       1.49189997      -0.01710000
19
Properties=species:S:1:pos:R:3 energy=-10943.421875 pbc="F F F"
C       -0.89060003       0.24660000      -0.16310000
C        0.57239997      -0.10640000      -0.43130001
O        1.30820000       1.04680002      -0.83170003
C        1.33060002      -0.65539998       0.79030001
C        0.80129999      -1.96689999       1.31589997
C       -0.31470001      -2.00939989       2.32789993
N        1.36960006      -3.01740003       0.85689998
O        0.80239999      -4.18750000       1.39069998
H       -0.96770000       0.98850000       0.63859999
H       -1.35099995       0.67159998      -1.06299996
H       -1.47510004      -0.63540000       0.11440000
H        0.61559999      -0.87660003      -1.21800005
H        0.86070001       1.43550003      -1.59000003
H        2.37080002      -0.78869998       0.48429999
H        1.30859995       0.10310000       1.58179998
H       -1.16429996      -2.58590007       1.94729996
H        0.02270000      -2.52690005       3.23239994
H       -0.65310001      -1.00810003       2.59719992
H        1.33710003      -4.87470007       0.97990000
17
Properties=species:S:1:pos:R:3 energy=-10909.9609375 pbc="F F F"
C       -0.55260003       1.59850001      -0.10250000
O       -0.17140000       0.35699999       0.44859999
C       -1.04289997      -0.68620002       0.11950000
C       -0.94900000      -1.28989995      -1.32939994
C       -0.82220000      -2.64240003      -0.66310000
C       -0.60930002      -2.05089998       0.71490002
N       -0.98229998      -3.80279994      -1.14260006
O       -0.84140003      -4.78329992      -0.14030001
H        0.17560001       2.34010005       0.23350000
H       -0.55470002       1.57770002      -1.20260000
H       -1.55470002       1.90219998       0.23840000
H       -2.07990003      -0.42590001       0.37830001
H       -1.78939998      -1.14359999      -2.01139998
H       -0.02180000      -0.97670001      -1.82239997
H        0.44530001      -2.03180003       1.00899994
H       -1.20019996      -2.47000003       1.53149998
H       -1.00240004      -5.59660006      -0.63050002
16
Properties=species:S:1:pos:R:3 energy=-10335.8095703125 pbc="F F F"
C       -0.05060000       1.55490005       0.01010000
C        0.10980000       0.06850000      -0.02010000
N       -0.79699999      -0.85369998       0.74769998
C        0.66180003      -0.93140000       0.95990002
C        1.20159996      -1.82949996      -0.16970000
C        0.65369999      -0.77380002      -1.13220000
N        0.76260000      -0.50660002      -2.36389995
O        1.45229995      -1.52880001      -3.04469991
H        0.83530003       2.04800010      -0.40130001
H       -0.91360003       1.86829996      -0.58700001
H       -0.19930001       1.91149998       1.03499997
H       -1.18099999      -0.28819999       1.50689995
H        1.10490000      -0.75730002       1.93229997
H        2.29220009      -1.88989997      -0.22149999
H        0.76840001      -2.83030009      -0.22880000
H        1.46550000      -1.19570005      -3.94819999
13
Properties=species:S:1:pos:R:3 energy=-11853.076171875 pbc="F F F"
O       -0.06650000       1.38450003      -0.06590000
N        0.07570000      -0.01780000      -0.02650000
C       -1.03929996      -0.58950001       0.05840000
C       -2.55469990      -0.42550001       0.06380000
O       -2.59290004      -1.53020000      -0.93440002
C       -1.59490001      -2.00070000       0.06940000
C       -2.60590005      -1.55519998       1.15769994
O       -2.09540009      -1.35280001       2.43490005
H        0.84979999       1.67439997      -0.13200000
H       -3.18569994       0.44299999      -0.10720000
H       -1.11119998      -2.96079993      -0.09310000
H       -3.54239988      -2.12220001       1.11780000
H       -2.79290009      -1.00049996       2.99659991
13
Properties=species:S:1:pos:R:3 energy=-10844.7548828125 pbc="F F F"
O       -0.07530000       1.31610000      -0.00770000
N        0.02340000      -0.07470000       0.03360000
C       -1.12570000      -0.63510001      -0.00140000
C       -2.48180008      -0.06610000      -0.03340000
C       -3.39299989      -1.04970002       0.05210000
C       -2.71690011      -2.38770008       0.08690000
O       -1.95420003      -2.66400003      -1.10720003
C       -1.26859999      -2.12680006       0.03640000
H        0.84759998       1.59109998       0.02540000
H       -2.67470002       0.99210000      -0.13510001
H       -4.46799994      -0.92210001       0.05720000
H       -3.16140008      -3.25230002       0.56910002
H       -0.50059998      -2.75329995       0.47610000
14
Properties=species:S:1:pos:R:3 energy=-10307.08203125 pbc="F F F"
N        0.00760000       1.39779997      -0.16100000
C        0.02030000       0.00860000      -0.06540000
C       -1.17470002      -0.72240001       0.02250000
N       -1.22049999      -2.05089998       0.05720000
C       -0.08170000      -2.73670006       0.00820000
C        1.16310000      -2.10529995      -0.07750000
O        2.27259994      -2.89199996      -0.11900000
C        1.21510005      -0.71619999      -0.11360000
H        0.83920002       1.86090004       0.17530000
H       -0.82950002       1.83609998       0.19509999
H       -2.12660003      -0.19580001       0.06350000
H       -0.13370000      -3.82080007       0.03840000
H        3.05599999      -2.33629990      -0.18750000
H        2.16980004      -0.19949999      -0.18470000
15
Properties=species:S:1:pos:R:3 energy=-10880.5400390625 pbc="F F F"
C        0.02080000       1.41610003       0.06780000
C        0.02320000      -0.06470000      -0.05100000
N       -0.01460000      -0.78369999      -1.13399994
C        0.00900000      -2.08660007      -0.67799997
O       -0.01860000      -3.13420010      -1.52989995
C        0.06080000      -2.11969995       0.67699999
C        0.10470000      -3.18779993       1.70190001
O        0.07000000      -0.79360002       1.08319998
H        0.92210001       1.77289999       0.57730001
H       -0.01960000       1.85309994      -0.93030000
H       -0.84219998       1.76450002       0.64499998
H       -0.05390000      -2.76309991      -2.41930008
H        1.01279998      -3.13439989       2.31430006
H       -0.75470001      -3.14240003       2.38159990
H        0.09000000      -4.15889978       1.20130002
17
Properties=species:S:1:pos:R:3 energy=-9902.05078125 pbc="F F F"
C        0.02080000       1.53250003      -0.04410000
C       -0.01830000       0.00480000       0.05990000
N       -1.36300004      -0.54170001       0.03260000
C       -2.11969995      -0.84719998       1.12769997
C       -3.37500000      -1.23440003       0.70529997
C       -3.36870003      -1.15139997      -0.71340001
O       -4.38360023      -1.44869995      -1.57900000
C       -2.12290001      -0.71840000      -1.10839999
H        1.05599999       1.88800001      -0.02270000
H       -0.43979999       1.87160003      -0.97619998
H       -0.51999998       1.99160004       0.78850001
H        0.55110002      -0.44490001      -0.76099998
H        0.45240000      -0.32460001       0.99140000
H       -1.70650005      -0.76779997       2.12100005
H       -4.19059992      -1.55739999       1.33529997
H       -5.14410019      -1.73169994      -1.06389999
H       -1.72099996      -0.53469998      -2.09050012
12
Properties=species:S:1:pos:R:3 energy=-11285.173828125 pbc="F F F"