11
Properties=species:S:1:pos:R:3:forces:R:3 energy=-7764.1767578125 pbc="F F F"
C        0.06150000       1.48870003       0.06140000      -0.00000086      -0.00000069      -0.00000037
C       -0.06700000       0.01200000      -0.00220000       0.00000084      -0.00000227       0.00000051
C       -1.07239997      -0.85560000      -0.27559999      -0.00000173      -0.00000048      -0.00000034
N       -0.60420001      -2.16310000      -0.18449999       0.00000119      -0.00000078       0.00000173
C        0.63880002      -2.02440000       0.13370000      -0.00000103       0.00000046      -0.00000008
O        1.05040002      -0.74070001       0.26519999      -0.00000083       0.00000008       0.00000191
H        0.80419999       1.85889995      -0.65399998      -0.00000020      -0.00000101       0.00000128
H       -0.89960003       1.95159996      -0.17309999       0.00000013      -0.00000013       0.00000005
H        0.36899999       1.82299995       1.05840003       0.00000024       0.00000064       0.00000013
H       -2.09710002      -0.63679999      -0.53079998       0.00000015      -0.00000000       0.00000038
H        1.37899995      -2.78999996       0.30530000      -0.00000172       0.00000208       0.00000126
11
Properties=species:S:1:pos:R:3:forces:R:3 energy=-7763.42041015625 pbc="F F F"
C       -0.02650000       1.46399999       0.01190000       0.00000007       0.00000153       0.00000012
C       -0.02060000       0.01060000      -0.00070000       0.00000051       0.00000179      -0.00000230
C       -0.00720000      -1.19449997      -0.01180000      -0.00000148       0.00000005       0.00000155
C        0.08430000      -2.64700007      -0.02350000       0.00000054       0.00000004       0.00000002
N       -1.12919998      -3.27449989      -0.03260000      -0.00000008      -0.00000090      -0.00000038
O        1.14349997      -3.24440002      -0.03280000      -0.00000094      -0.00000120      -0.00000100
H        0.99309999       1.86290002       0.01820000       0.00000006       0.00000131       0.00000056
H       -0.53920001       1.86189997      -0.87050003      -0.00000083       0.00000135      -0.00000087
H       -0.54430002       1.84689999       0.89800000       0.00000152      -0.00000074       0.00000009
H       -1.98880005      -2.75909996       0.03570000       0.00000082       0.00000023      -0.00000151
H       -1.14590001      -4.28030014       0.00580000       0.00000003      -0.00000114      -0.00000186
12
Properties=species:S:1:pos:R:3:forces:R:3 energy=-6313.7470703125 pbc="F F F"
C       -0.01520000       1.54740000       0.01690000       0.00000117      -0.00000072       0.00000013
C       -0.02480000      -0.00110000      -0.04340000      -0.00000021       0.00000107       0.00000112
C       -1.39440000      -0.52460003       0.00680000       0.00000060      -0.00000010       0.00000109
C       -2.52410007      -0.92769998       0.06470000      -0.00000072      -0.00000028       0.00000019
C        0.69400001      -0.48949999      -1.22549999       0.00000111      -0.00000151      -0.00000033
C        1.30050004      -0.86339998      -2.19219995      -0.00000006      -0.00000115      -0.00000015
H        1.01429999       1.91330004       0.01900000       0.00000111       0.00000175       0.00000057
H       -0.53369999       1.96249998      -0.84990001       0.00000158       0.00000014      -0.00000111
H       -0.51990002       1.88750005       0.92439997       0.00000037       0.00000137      -0.00000062
H        0.50620002      -0.37090001       0.84579998       0.00000079       0.00000050       0.00000067
H       -3.51929998      -1.29550004       0.10980000      -0.00000084      -0.00000080      -0.00000120
H        1.82969999      -1.20570004      -3.04679990      -0.00000051       0.00000176       0.00000121
8
Properties=species:S:1:pos:R:3:forces:R:3 energy=-8167.46728515625 pbc="F F F"
O       -0.04620000       1.43959999       0.01030000       0.00000179       0.00000100      -0.00000100
C        0.03760000       0.03760000       0.00190000      -0.00000060      -0.00000121       0.00000160
C        0.69190001      -0.48420000      -1.21910000      -0.00000091      -0.00000116      -0.00000063
N        1.19959998      -0.85570002      -2.18689990      -0.00000160      -0.00000032       0.00000000
C        0.71499997      -0.49730000       1.20449996      -0.00000092      -0.00000052      -0.00000025
N        1.24100006      -0.87910002       2.15840006      -0.00000050      -0.00000079      -0.00000028
H        0.84660000       1.80729997       0.00370000       0.00000034      -0.00000055      -0.00000029
H       -0.99739999      -0.32420000       0.00980000      -0.00000101       0.00000011       0.00000088
9
Properties=species:S:1:pos:R:3:forces:R:3 energy=-8741.2109375 pbc="F F F"
O        0.04940000       1.47660005       0.12899999      -0.00000076       0.00000096      -0.00000031
C        0.01590000       0.08770000       0.06680000       0.00000089      -0.00000154       0.00000106
C        0.68190002      -0.42179999      -1.22479999      -0.00000057       0.00000062       0.00000125
O        1.14870000       0.36030000      -2.00810003      -0.00000024      -0.00000092       0.00000188
C        0.69190001      -0.55390000       1.21440005       0.00000075       0.00000111       0.00000095
N        1.22650003      -1.08169997       2.09190011       0.00000023      -0.00000074       0.00000035
H        0.59680003       1.75960004      -0.62279999       0.00000123      -0.00000070       0.00000049
H       -1.02559996      -0.27550000       0.05830000      -0.00000033      -0.00000094      -0.00000036
H        0.69980001      -1.51629996      -1.37549996       0.00000039       0.00000032      -0.00000041
12
Properties=species:S:1:pos:R:3:forces:R:3 energy=-8336.1318359375 pbc="F F F"
O        0.02240000      -0.09500000      -0.14880000      -0.00000089       0.00000237       0.00000017
C        0.02870000       1.09379995       0.03630000       0.00000022       0.00000022      -0.00000138
C        1.25829995       1.96089995       0.03690000      -0.00000022       0.00000004       0.00000035
C        1.12769997       3.26410007      -0.79689997      -0.00000000      -0.00000011      -0.00000037
O        1.13540006       4.08879995       0.38150001       0.00000013      -0.00000150      -0.00000118
C        1.34959996       2.94840002       1.23140001      -0.00000070       0.00000074      -0.00000062
H       -0.91769999       1.65429997       0.22770000       0.00000040       0.00000065       0.00000245
H        2.14140010       1.35200000      -0.15449999      -0.00000128      -0.00000045       0.00000091
H        1.98210001       3.46449995      -1.45410001      -0.00000028      -0.00000195      -0.00000019
H        0.20010000       3.37570000      -1.37249994       0.00000074       0.00000089      -0.00000016
H        0.56870002       2.85139990       1.99629998      -0.00000111      -0.00000201       0.00000097
H        2.32960010       2.97009993       1.72259998       0.00000017       0.00000019       0.00000104
14
Properties=species:S:1:pos:R:3:forces:R:3 energy=-6347.40283203125 pbc="F F F"
C       -0.00160000       1.47259998       0.00270000       0.00000023       0.00000087       0.00000063
C        0.00830000       0.01690000       0.02390000      -0.00000023       0.00000022       0.00000054
C        0.01740000      -1.18830001       0.04120000       0.00000073       0.00000100       0.00000299
C        0.03480000      -2.62290001       0.05810000       0.00000148      -0.00000077      -0.00000095
C       -0.52100003      -3.38569999       1.25049996       0.00000063      -0.00000046      -0.00000062
C       -1.26150000      -3.41000009      -0.05410000      -0.00000055      -0.00000048       0.00000115
H        0.92650002       1.86790001      -0.42550001      -0.00000185      -0.00000105      -0.00000009
H       -0.83200002       1.86129999      -0.59789997       0.00000107      -0.00000162       0.00000173
H       -0.10030000       1.88849998       1.01189995       0.00000092       0.00000051      -0.00000039
H        0.89749998      -3.07540011      -0.42309999      -0.00000122      -0.00000022      -0.00000026
H        0.01090000      -4.27740002       1.56289995       0.00000035      -0.00000067      -0.00000047
H       -0.93489999      -2.79730010       2.06060004      -0.00000076       0.00000123       0.00000082
H       -2.17849994      -2.83809996      -0.13040000       0.00000125      -0.00000032       0.00000034
H       -1.24269998      -4.31850004      -0.64550000       0.00000002       0.00000064       0.00000108
14
Properties=species:S:1:pos:R:3:forces:R:3 energy=-7357.68115234375 pbc="F F F"
C        0.06000000       1.53690004       0.00970000      -0.00000071       0.00000040      -0.00000080
C        1.32410002       0.70529997      -0.00680000       0.00000121       0.00000073       0.00000045
C       -0.01710000       0.04310000       0.00250000      -0.00000015       0.00000173       0.00000050
C       -0.61940002      -0.89310002       1.04499996      -0.00000141      -0.00000063       0.00000052
O       -1.17980003      -1.72399998       0.00410000       0.00000106       0.00000089      -0.00000048
C       -0.63929999      -0.88190001      -1.03830004      -0.00000069       0.00000080       0.00000128
H       -0.19939999       2.05749989       0.92650002      -0.00000081      -0.00000075       0.00000109
H       -0.21680000       2.06719995      -0.89630002      -0.00000103       0.00000132      -0.00000119
H        1.90409994       0.67199999      -0.92400002      -0.00000049      -0.00000078      -0.00000116
H        1.92149997       0.66219997       0.89880002       0.00000021      -0.00000092      -0.00000130
H        0.09690000      -1.44420004       1.66939998       0.00000112       0.00000058       0.00000085
H       -1.39740002      -0.46100000       1.68910003      -0.00000068      -0.00000090      -0.00000113
H       -1.42939997      -0.44299999      -1.66270006      -0.00000029      -0.00000017       0.00000138
H        0.06480000      -1.42620003      -1.68219995       0.00000016      -0.00000046      -0.00000175
14
Properties=species:S:1:pos:R:3:forces:R:3 energy=-8369.3720703125 pbc="F F F"
C       -0.01390000       1.52520001       0.01690000       0.00000016      -0.00000047      -0.00000024
C        1.42850006       2.03679991      -0.03690000      -0.00000002      -0.00000077      -0.00000078
O        2.11439991       1.46949995      -1.14610004      -0.00000169       0.00000015       0.00000165
C        2.08030009       0.06800000      -1.09660006      -0.00000085      -0.00000060      -0.00000207
O        0.77850002      -0.45230001      -1.14370000       0.00000023       0.00000077       0.00000043
C        0.00900000      -0.00510000      -0.03430000       0.00000245       0.00000055       0.00000117
H       -0.51410002       1.87409997       0.92729998       0.00000022      -0.00000089      -0.00000062
H       -0.56639999       1.90820003      -0.84729999      -0.00000024      -0.00000001      -0.00000016
H        1.47449994       3.12150002      -0.16270000      -0.00000119      -0.00000032      -0.00000040
H        1.95480001       1.77849996       0.89870000       0.00000008      -0.00000211       0.00000082
H        2.60439992      -0.29740000      -1.98189998       0.00000020       0.00000083      -0.00000150
H        2.58909988      -0.28450000      -0.17680000      -0.00000089      -0.00000049      -0.00000037
H        0.43570000      -0.40680000       0.90149999       0.00000034      -0.00000101       0.00000139
H       -0.99180001      -0.42649999      -0.15820000       0.00000019      -0.00000095      -0.00000060
13
Properties=species:S:1:pos:R:3:forces:R:3 energy=-9269.8798828125 pbc="F F F"
C        0.00020000       1.40810001       0.03980000      -0.00000209      -0.00000041      -0.00000179
O        0.00480000      -0.01380000       0.00200000      -0.00000016       0.00000042      -0.00000167
C        0.62250000      -0.62629998       1.03149998      -0.00000077      -0.00000032       0.00000123
C        0.74180001      -1.98679996       1.18879998      -0.00000084       0.00000177       0.00000057
N        1.44169998      -2.12899995       2.37509990      -0.00000037      -0.00000184      -0.00000137
C        1.69970000      -0.88830000       2.85349989       0.00000190       0.00000016      -0.00000040
N        1.21500003       0.04870000       2.06100011       0.00000109       0.00000086       0.00000090
H        1.01859999       1.81070006       0.03290000       0.00000089      -0.00000183      -0.00000075
H       -0.53350002       1.72710001      -0.85720003       0.00000144      -0.00000111      -0.00000006
H       -0.51139998       1.78190005       0.93290001      -0.00000132      -0.00000027      -0.00000042
H        0.41139999      -2.82279992       0.59930003       0.00000142       0.00000195      -0.00000030
H        1.70860004      -3.00040007       2.80019999       0.00000012       0.00000073       0.00000062
H        2.23769999      -0.71899998       3.77360010      -0.00000094      -0.00000082       0.00000179
14
Properties=species:S:1:pos:R:3:forces:R:3 energy=-8833.3544921875 pbc="F F F"
C       -0.00500000       1.51100004      -0.02060000       0.00000052       0.00000071      -0.00000098
C       -0.02050000      -0.00210000       0.06480000      -0.00000058      -0.00000037       0.00000099
O       -0.07020000      -0.59289998       1.11880004       0.00000023       0.00000051       0.00000045
C        0.03040000      -0.75309998      -1.26250005       0.00000056       0.00000184      -0.00000162
C        0.00950000      -2.27559996      -1.05910003      -0.00000068       0.00000115      -0.00000109
C        0.05810000      -2.99930000      -2.32629991      -0.00000108       0.00000085       0.00000211
N        0.09700000      -3.55629992      -3.33800006       0.00000083      -0.00000336      -0.00000127
H        0.89999998       1.85500002      -0.53380001       0.00000018       0.00000215      -0.00000099
H       -0.85769999       1.86880004      -0.60860002      -0.00000027      -0.00000011       0.00000037
H       -0.04440000       1.93830001       0.98159999       0.00000158       0.00000177       0.00000070
H       -0.81389999      -0.43210000      -1.88489997       0.00000119       0.00000093      -0.00000008
H        0.92979997      -0.44600001      -1.81019998       0.00000151       0.00000065       0.00000006
H        0.85479999      -2.58119988      -0.43509999       0.00000103      -0.00000110       0.00000040
H       -0.89069998      -2.56730008      -0.50980002      -0.00000087       0.00000006       0.00000079
17
Properties=species:S:1:pos:R:3:forces:R:3 energy=-9438.5859375 pbc="F F F"
O       -0.21120000       1.44920003       0.23810001       0.00000056      -0.00000003      -0.00000004
C       -0.00560000       0.05150000       0.03430000       0.00000156      -0.00000055      -0.00000063
C        0.70050001      -0.59539998       1.24489999       0.00000072      -0.00000040      -0.00000169
C       -0.44549999      -0.80640000       2.24110007      -0.00000020      -0.00000075       0.00000190
C       -1.57379997      -1.35420001       1.34660006       0.00000132      -0.00000004      -0.00000016
O       -2.88619995      -1.13499999       1.83879995       0.00000034       0.00000111      -0.00000078
C       -1.40149999      -0.60810000       0.00300000      -0.00000133      -0.00000107      -0.00000083
H        0.65350002       1.86670005       0.30919999      -0.00000038       0.00000011      -0.00000031
H        0.55010003      -0.11250000      -0.89940000       0.00000065      -0.00000108      -0.00000196
H        1.13269997      -1.55970001       0.94720000      -0.00000091      -0.00000004       0.00000160
H        1.51859999       0.02290000       1.62899995       0.00000173      -0.00000085      -0.00000119
H       -0.19270000      -1.46930003       3.07439995       0.00000092       0.00000240      -0.00000203
H       -0.76770002       0.15780000       2.64809990       0.00000076      -0.00000137      -0.00000183
H       -1.40929997      -2.43289995       1.18959999       0.00000085      -0.00000229       0.00000126
H       -2.98090005      -1.62600005       2.66109991       0.00000092       0.00000118      -0.00000025
H       -2.16219997       0.17170000      -0.07600000      -0.00000113      -0.00000002      -0.00000168
H       -1.51750004      -1.27909994      -0.85110003       0.00000078       0.00000015      -0.00000002
15
Properties=species:S:1:pos:R:3:forces:R:3 energy=-9407.2490234375 pbc="F F F"
C       -0.36309999       1.47700000       0.02980000       0.00000073       0.00000124       0.00000039
C        0.13500001       0.03600000      -0.02780000      -0.00000300      -0.00000160      -0.00000288
C        1.03260005      -0.35060000      -1.21019995      -0.00000042       0.00000026      -0.00000015
C        1.87360001      -1.48860002      -0.61629999      -0.00000063      -0.00000010      -0.00000087
O        1.97959995      -1.19879997       0.78890002       0.00000037       0.00000024       0.00000078
C        1.00339997      -0.33370000       1.17789996      -0.00000006      -0.00000216      -0.00000113
O        0.89190000       0.04100000       2.30920005       0.00000167       0.00000125       0.00000043
H        0.47070000       2.18160009      -0.05360000       0.00000023      -0.00000007      -0.00000094
H       -1.06620002       1.68340003      -0.78219998       0.00000111      -0.00000165       0.00000037
H       -0.86299998       1.66209996       0.98360002      -0.00000078       0.00000106       0.00000244
H       -0.72689998      -0.64609998       0.01140000       0.00000051      -0.00000153       0.00000015
H        0.48379999      -0.65890002      -2.10240006       0.00000084      -0.00000082       0.00000102
H        1.67600000       0.49349999      -1.48230004      -0.00000098      -0.00000048      -0.00000125
H        1.38779998      -2.46469998      -0.73580003      -0.00000077       0.00000082       0.00000002
H        2.88610005      -1.55110002      -1.01999998       0.00000043       0.00000053      -0.00000003
15
Properties=species:S:1:pos:R:3:forces:R:3 energy=-9404.4775390625 pbc="F F F"
C       -0.11910000       1.47800004       0.01300000      -0.00000151      -0.00000189      -0.00000160
C        0.09620000       0.00270000       0.07450000      -0.00000057       0.00000023      -0.00000070
O       -1.06029999      -0.84549999      -0.09940000      -0.00000080       0.00000090       0.00000046
C       -0.58370000      -1.74179995       0.94959998      -0.00000076      -0.00000121       0.00000006
C        0.71899998      -0.97189999       1.07879996       0.00000100       0.00000102      -0.00000081
C        1.29419994      -0.79549998      -0.32040000      -0.00000038      -0.00000175      -0.00000138
O        1.22889996      -1.77960002      -1.30229998       0.00000117      -0.00000007      -0.00000032
H        0.82010001       2.00699997       0.19890000       0.00000070       0.00000051       0.00000115
H       -0.48210001       1.77170002      -0.97850001       0.00000009       0.00000093       0.00000016
H       -0.85570002       1.80200005       0.75510001       0.00000069       0.00000072      -0.00000054
H       -1.23529994      -1.67480004       1.82650006       0.00000163       0.00000015      -0.00000103
H       -0.52029997      -2.78049994       0.60670000       0.00000079       0.00000063       0.00000036
H        1.27890003      -0.80010003       1.98889995       0.00000070      -0.00000144       0.00000008
H        2.23589993      -0.25380000      -0.34630001       0.00000056      -0.00000001       0.00000076
H        0.29769999      -1.83430004      -1.55840003      -0.00000097       0.00000124      -0.00000036
21
Properties=species:S:1:pos:R:3:forces:R:3 energy=-7482.6787109375 pbc="F F F"
C       -0.17309999       1.53620005       0.05230000      -0.00000060      -0.00000069      -0.00000012
C       -0.14650001       0.01430000      -0.11000000      -0.00000081       0.00000208      -0.00000117
C        0.92680001      -0.46930000      -1.09539998      -0.00000090       0.00000017       0.00000084
C        0.94730002      -1.97710001      -1.24489999      -0.00000049       0.00000085      -0.00000058
C        0.02720000      -2.67759991      -2.22000003       0.00000076       0.00000021       0.00000073
C        1.52049994      -2.69039989      -2.44989991      -0.00000050      -0.00000153      -0.00000012
C        2.14030004      -1.96510005      -3.62509990       0.00000121       0.00000182      -0.00000022
H        0.78860003       1.91349995       0.41830000      -0.00000075       0.00000079      -0.00000121
H       -0.37880000       2.03299999      -0.90259999       0.00000051      -0.00000092      -0.00000005
H       -0.94470000       1.84990001       0.76249999      -0.00000024      -0.00000138      -0.00000027
H        0.02390000      -0.45629999       0.86739999      -0.00000172      -0.00000199      -0.00000069
H       -1.12829995      -0.34020001      -0.44870001      -0.00000010       0.00000058       0.00000148
H        0.75529999       0.00510000      -2.06929994       0.00000128      -0.00000202      -0.00000001
H        1.91139996      -0.11710000      -0.75610000       0.00000028       0.00000149      -0.00000019
H        1.09819996      -2.49609995      -0.30010000      -0.00000035      -0.00000160      -0.00000103
H       -0.47130001      -3.59270000      -1.91849995       0.00000001      -0.00000126       0.00000071
H       -0.56750000      -2.04780006      -2.87610006       0.00000070       0.00000033      -0.00000089
H        2.01250005      -3.63269997      -2.21970010       0.00000098       0.00000051       0.00000017
H        1.60160005      -1.04569995      -3.87120008      -0.00000009       0.00000100      -0.00000030
H        3.18359995      -1.69439995      -3.42560005      -0.00000017      -0.00000055      -0.00000016
H        2.12829995      -2.59780002      -4.51970005       0.00000210      -0.00000052       0.00000045
11
Properties=species:S:1:pos:R:3:forces:R:3 energy=-8327.033203125 pbc="F F F"
C        0.03390000      -1.17219996      -0.01890000      -0.00000046      -0.00000202      -0.00000001
C        0.00430000       0.02770000       0.01800000      -0.00000072       0.00000134       0.00000005
C       -0.04680000       1.47010005       0.06500000       0.00000010      -0.00000164       0.00000038
C        0.54430002       2.18219995       1.23020005      -0.00000046      -0.00000092      -0.00000040
O        1.23099995       2.14429998      -0.00740000      -0.00000024      -0.00000025      -0.00000068
C       -1.12329996       2.09080005      -0.67070001      -0.00000013       0.00000020       0.00000129
C       -2.02649999       2.59859991      -1.27769995      -0.00000126      -0.00000151       0.00000093
H        0.06350000      -2.23340011      -0.05730000      -0.00000057       0.00000058      -0.00000061
H        0.12410000       3.14569998       1.51289999      -0.00000168      -0.00000064      -0.00000083
H        0.97579998       1.58720005       2.03309989      -0.00000077       0.00000043      -0.00000004
H       -2.82139993       3.04760003      -1.82079995      -0.00000079      -0.00000048       0.00000015
13
Properties=species:S:1:pos:R:3:forces:R:3 energy=-9373.3525390625 pbc="F F F"
O       -0.32350001       0.42500001      -0.76480001      -0.00000171       0.00000061      -0.00000039
C        0.10860000       1.04270005       0.18030000       0.00000047      -0.00000019      -0.00000109
C        1.29530001       1.94330001       0.09690000       0.00000074      -0.00000055       0.00000055
C        2.39520001       1.54480004      -0.90590000       0.00000140       0.00000101      -0.00000172
C        1.51370001       2.67510009      -1.24140000       0.00000331      -0.00000125      -0.00000018
C        1.72490001       2.64450002       1.33060002       0.00000109      -0.00000029      -0.00000012
O        1.18460000       2.54189992       2.40429997      -0.00000113      -0.00000032      -0.00000038
H       -0.35229999       0.98100001       1.18369997       0.00000021      -0.00000035      -0.00000085
H        3.41810012       1.74230003      -0.60399997      -0.00000005       0.00000037      -0.00000042
H        2.21799994       0.59410000      -1.39499998       0.00000014      -0.00000058      -0.00000018
H        0.72289997       2.51130009      -1.96399999      -0.00000198      -0.00000025       0.00000099
H        1.90240002       3.68589997      -1.18089998       0.00000178      -0.00000148       0.00000035
H        2.61739993       3.29979992       1.19330001      -0.00000035       0.00000042      -0.00000038
15
Properties=species:S:1:pos:R:3:forces:R:3 energy=-9405.724609375 pbc="F F F"
C        0.05720000       1.56439996       0.03140000      -0.00000222      -0.00000057      -0.00000038
C       -0.22880000       0.07170000      -0.15700001       0.00000116      -0.00000189       0.00000107
C        0.66820002      -0.55860001      -1.21280003       0.00000019      -0.00000175       0.00000067
O        2.07800007      -0.56629997      -0.85699999       0.00000005      -0.00000042       0.00000126
C        2.19849992      -2.00040007      -0.93199998      -0.00000201       0.00000076      -0.00000026
C        0.70920002      -2.09260011      -1.28779995      -0.00000025      -0.00000089       0.00000067
O       -0.07710000      -2.96259999      -1.50349998       0.00000094       0.00000054      -0.00000008
H        1.10160005       1.72169995       0.31490001       0.00000048       0.00000097       0.00000007
H       -0.12940000       2.12280011      -0.89230001      -0.00000035      -0.00000078       0.00000011
H       -0.57760000       1.98810005       0.81489998      -0.00000022      -0.00000081       0.00000130
H       -0.08970000      -0.46110001       0.79119998      -0.00000063       0.00000032      -0.00000201
H       -1.26919997      -0.08990000      -0.46410000      -0.00000086      -0.00000089       0.00000088
H        0.51330000      -0.08100000      -2.19199991      -0.00000016       0.00000108       0.00000033
H        2.88459992      -2.33489990      -1.72099996       0.00000015       0.00000115      -0.00000139
H        2.49009991      -2.46040010       0.02060000      -0.00000099      -0.00000022      -0.00000027
15
Properties=species:S:1:pos:R:3:forces:R:3 energy=-8394.3505859375 pbc="F F F"
C        0.13620000      -1.14510000      -0.32539999       0.00000050      -0.00000047      -0.00000011
C        0.03440000       0.03840000      -0.14040001      -0.00000061       0.00000025      -0.00000243
C       -0.09350000       1.47899997       0.09300000      -0.00000032       0.00000163      -0.00000009
C       -0.64960003       1.80799997       1.51650000      -0.00000008       0.00000136      -0.00000095
C        0.39660001       2.78040004       2.09400010      -0.00000078       0.00000112      -0.00000076
C        1.64859998       2.40089989       1.30159998       0.00000174      -0.00000090       0.00000033
O        1.17270005       2.14089990      -0.01310000      -0.00000081       0.00000056      -0.00000040
H        0.22870000      -2.18869996      -0.49869999       0.00000068       0.00000128       0.00000091
H       -0.72990000       1.90779996      -0.68940002      -0.00000009       0.00000008      -0.00000073
H       -1.65059996       2.24000001       1.46309996       0.00000052      -0.00000033       0.00000077
H       -0.70999998       0.89520001       2.11269999       0.00000058       0.00000191       0.00000115
H        0.12370000       3.81809998       1.87969995       0.00000086      -0.00000311      -0.00000149
H        0.52130002       2.67499995       3.17449999       0.00000036      -0.00000025       0.00000050
H        2.39389992       3.19709992       1.23000002       0.00000015      -0.00000129      -0.00000071
H        2.13129997       1.50750005       1.72880006      -0.00000005      -0.00000101      -0.00000101
15
Properties=species:S:1:pos:R:3:forces:R:3 energy=-8394.36328125 pbc="F F F"
C       -0.23559999      -1.19719994      -0.49309999       0.00000129      -0.00000086      -0.00000030
C       -0.11600000      -0.03630000      -0.20389999      -0.00000038      -0.00000145       0.00000060
C        0.04990000       1.36199999       0.15290000       0.00000016       0.00000114       0.00000106
C       -0.45699999       1.74160004       1.57560003       0.00000034       0.00000004       0.00000092
C        0.57099998       2.80010009       2.05369997       0.00000251      -0.00000002       0.00000115
O        1.46599996       3.03049994       0.96920002       0.00000082       0.00000161      -0.00000026
C        1.52030003       1.83790004       0.21570000       0.00000164       0.00000116      -0.00000004
H       -0.34570000      -2.22040009      -0.75449997      -0.00000068       0.00000186      -0.00000107
H       -0.46700001       1.98689997      -0.58429998      -0.00000205       0.00000010       0.00000005
H       -1.47669995       2.12980008       1.54260004      -0.00000019       0.00000047       0.00000058
H       -0.45539999       0.86460000       2.22609997       0.00000050       0.00000116      -0.00000073
H        0.11730000       3.75999999       2.31450009       0.00000115      -0.00000055       0.00000086
H        1.12290001       2.43289995       2.93149996      -0.00000076       0.00000114      -0.00000051
H        2.14319992       1.07130003       0.70459998      -0.00000091       0.00000018      -0.00000118
H        1.94589996       2.06750011      -0.76349998       0.00000039      -0.00000189      -0.00000238
16
Properties=species:S:1:pos:R:3:forces:R:3 energy=-8864.8125 pbc="F F F"