16
Properties=species:S:1:pos:R:3:forces:R:3 energy=-8864.8125 pbc="F F F"
C        0.01290000       1.59150004      -0.08710000      -0.00000093      -0.00000001      -0.00000166
C       -0.04280000       0.07580000      -0.25490001      -0.00000081       0.00000131      -0.00000067
C       -1.33609998      -0.54769999       0.23600000       0.00000011      -0.00000061      -0.00000192
O       -2.27469993       0.11250000       0.63540000       0.00000006       0.00000083       0.00000032
C       -1.41659999      -2.04419994       0.20690000      -0.00000096      -0.00000103      -0.00000062
C       -1.92159998      -2.70260000       1.45609999       0.00000076       0.00000136       0.00000013
N       -2.75489998      -2.65000010       0.26420000      -0.00000077       0.00000010      -0.00000061
H        0.95260000       1.98959994      -0.47950000      -0.00000030      -0.00000017       0.00000060
H       -0.81569999       2.07089996      -0.61379999       0.00000053      -0.00000003       0.00000130
H       -0.06740000       1.87119997       0.96660000      -0.00000148      -0.00000013       0.00000138
H        0.07470000      -0.21250001      -1.30980003       0.00000040       0.00000177      -0.00000064
H        0.78850001      -0.42080000       0.26499999       0.00000167       0.00000180      -0.00000044
H       -0.68889999      -2.56710005      -0.40700001      -0.00000008      -0.00000001       0.00000103
H       -1.54020000      -3.68479991       1.72019994       0.00000113       0.00000022      -0.00000007
H       -2.16210008      -2.04769993       2.28889990       0.00000043      -0.00000042       0.00000080
H       -3.41499996      -1.87750006       0.36860001       0.00000044      -0.00000126      -0.00000024
10
Properties=species:S:1:pos:R:3:forces:R:3 energy=-9674.1298828125 pbc="F F F"
O       -0.01920000      -0.07660000       0.00350000      -0.00000040      -0.00000125      -0.00000026
C        0.00420000       1.13759995       0.00910000      -0.00000046      -0.00000174       0.00000035
N       -1.15429997       1.91240001       0.02830000      -0.00000024      -0.00000128       0.00000062
N       -1.22850001       3.25079989       0.03610000      -0.00000009       0.00000075       0.00000045
C       -0.08750000       3.87350011       0.02430000      -0.00000076      -0.00000098      -0.00000036
N        1.15629995       3.28950000       0.00510000      -0.00000065      -0.00000050      -0.00000059
C        1.19780004       1.99609995      -0.00200000       0.00000046       0.00000000      -0.00000015
H       -2.04239988       1.42569995       0.03750000       0.00000094      -0.00000078       0.00000120
H       -0.12630001       4.95550013       0.03020000       0.00000112      -0.00000012      -0.00000244
H        2.16219997       1.49189997      -0.01710000      -0.00000016      -0.00000007       0.00000000
16
Properties=species:S:1:pos:R:3:forces:R:3 energy=-9429.62890625 pbc="F F F"
C        0.05200000       1.53170002       0.09550000      -0.00000005      -0.00000042      -0.00000182
C        0.01590000       0.01550000      -0.01010000      -0.00000159       0.00000086       0.00000088
O        0.69260001      -0.50330001       1.11430001       0.00000004      -0.00000118      -0.00000088
C       -1.45630002      -0.53410000      -0.04550000      -0.00000037       0.00000149       0.00000009
C       -2.19000006      -0.06360000      -1.22090006       0.00000087      -0.00000086       0.00000008
C       -2.76769996       0.33660001      -2.19499993      -0.00000141      -0.00000026      -0.00000073
C       -1.43359995      -1.99880004       0.02220000      -0.00000066      -0.00000002       0.00000184
C       -1.34640002      -3.19560003       0.09520000      -0.00000004      -0.00000004       0.00000030
H        1.09000003       1.87279999       0.11520000      -0.00000026      -0.00000147      -0.00000150
H       -0.45739999       1.99310005      -0.75309998      -0.00000198       0.00000052       0.00000122
H       -0.43120000       1.85829997       1.02199996      -0.00000036       0.00000049      -0.00000061
H        0.49860001      -0.30599999      -0.94569999      -0.00000114       0.00000028       0.00000012
H        0.63929999      -1.46609998       1.06910002      -0.00000184      -0.00000062       0.00000017
H       -1.94719994      -0.15440001       0.86189997      -0.00000067       0.00000042       0.00000019
H       -3.28859997       0.68599999      -3.05200005      -0.00000005       0.00000005      -0.00000112
H       -1.30530000      -4.25570011       0.15000001       0.00000050      -0.00000081       0.00000124
15
Properties=species:S:1:pos:R:3:forces:R:3 energy=-10879.431640625 pbc="F F F"
O       -0.84899998       1.63639998      -0.45220000      -0.00000220      -0.00000064       0.00000129
C        0.02190000       1.28779995       0.30260000      -0.00000075       0.00000073      -0.00000066
C        1.45969999       1.73430002       0.21879999      -0.00000096      -0.00000006      -0.00000053
C        1.77869999       2.80299997      -0.85949999       0.00000097      -0.00000065       0.00000119
N        2.13899994       3.72379994       0.22570001       0.00000091      -0.00000105       0.00000074
C        1.86099994       2.78940010       1.31260002       0.00000062       0.00000226      -0.00000119
C        2.28360009       5.06720018       0.29080001       0.00000059      -0.00000049      -0.00000035
O        2.37540007       5.69309998       1.32650006       0.00000036      -0.00000004      -0.00000034
H       -0.19509999       0.60380000       1.15380001      -0.00000108      -0.00000062       0.00000270
H        2.10980010       0.85560000       0.21740000       0.00000099      -0.00000062       0.00000107
H        2.60680008       2.55599999      -1.53100002      -0.00000016      -0.00000088       0.00000161
H        0.90280002       3.10330009      -1.44180000      -0.00000046       0.00000052      -0.00000096
H        1.05550003       3.11840010       1.97829998      -0.00000225       0.00000133      -0.00000060
H        2.73530006       2.52870011       1.91589999      -0.00000004       0.00000083       0.00000003
H        2.32150006       5.53000021      -0.71649998       0.00000233      -0.00000092       0.00000079
22
Properties=species:S:1:pos:R:3:forces:R:3 energy=-8519.529296875 pbc="F F F"
C       -0.04450000       1.55630004      -0.01370000       0.00000105      -0.00000020      -0.00000093
C        0.04280000       0.02860000       0.01650000      -0.00000029      -0.00000143       0.00000032
C        0.79210001      -0.57599998      -1.19490004      -0.00000028      -0.00000036       0.00000080
C        1.32149994      -1.94490004      -0.71359998       0.00000086      -0.00000177       0.00000017
C        1.54320002      -1.76119995       0.78049999       0.00000041      -0.00000189       0.00000150
C        2.26209998      -0.50840002       1.22819996       0.00000066      -0.00000229       0.00000055
C        0.74980003      -0.55790001       1.24500000       0.00000070       0.00000142      -0.00000043
C        0.01840000      -0.52980000       2.56620002       0.00000092       0.00000002      -0.00000106
H        0.95450002       2.00570011       0.01440000      -0.00000048      -0.00000019      -0.00000078
H       -0.54269999       1.90530002      -0.92470002       0.00000080      -0.00000038      -0.00000095
H       -0.60939997       1.94550002       0.83990002       0.00000213       0.00000067      -0.00000003
H       -0.98180002      -0.37279999       0.02420000       0.00000097      -0.00000023       0.00000101
H        0.15120000      -0.65829998      -2.07730007      -0.00000170      -0.00000070      -0.00000009
H        1.62580001       0.07650000      -1.47829998      -0.00000113       0.00000078      -0.00000121
H        0.56739998      -2.72539997      -0.87349999       0.00000126      -0.00000016      -0.00000029
H        2.22329998      -2.25519991      -1.25349998      -0.00000027       0.00000111       0.00000162
H        1.62399995      -2.64439988       1.40649998      -0.00000061      -0.00000076       0.00000072
H        2.76329994      -0.54500002       2.19009995       0.00000109      -0.00000061      -0.00000075
H        2.77970004       0.09990000       0.49290001      -0.00000192       0.00000046       0.00000033
H       -0.14139999       0.49630001       2.91869998      -0.00000052       0.00000002       0.00000036
H       -0.96579999      -1.00750005       2.48469996      -0.00000060       0.00000068       0.00000085
H        0.58090001      -1.05710006       3.34340000       0.00000127       0.00000269       0.00000010
18
Properties=species:S:1:pos:R:3:forces:R:3 energy=-9462.9443359375 pbc="F F F"
O        0.24380000       1.18429995      -0.56529999      -0.00000343       0.00000016       0.00000051
C        0.07730000      -0.06710000       0.06140000       0.00000014       0.00000174       0.00000045
C       -0.11630000      -0.13180000       1.60090005       0.00000003       0.00000182       0.00000262
C       -1.26310003      -1.15369999       1.36020005      -0.00000201       0.00000050       0.00000166
C       -1.33060002      -0.69360000      -0.12530001       0.00000201       0.00000108       0.00000119
C       -2.42960000       0.34580001      -0.41090000      -0.00000129      -0.00000099       0.00000134
C       -3.76270008      -0.24470000      -0.38460001      -0.00000037       0.00000034      -0.00000000
C       -4.85020018      -0.75680000      -0.35510001       0.00000118       0.00000074       0.00000001
H        1.11740005       1.52230000      -0.34540001       0.00000023       0.00000126       0.00000024
H        0.85350001      -0.77569997      -0.26289999       0.00000123       0.00000053       0.00000041
H        0.73490000      -0.44679999       2.20950007      -0.00000039      -0.00000051       0.00000095
H       -0.48989999       0.82300001       1.98130000      -0.00000064       0.00000011      -0.00000074
H       -0.92640001      -2.18860006       1.45729995      -0.00000021      -0.00000086       0.00000081
H       -2.17630005      -1.03100002       1.94589996       0.00000152       0.00000013      -0.00000039
H       -1.39619994      -1.48959994      -0.87099999       0.00000184       0.00000072       0.00000054
H       -2.37439990       1.16260004       0.31850001      -0.00000038       0.00000093      -0.00000071
H       -2.24210000       0.80790001      -1.38660002       0.00000176       0.00000171      -0.00000124
H       -5.81720018      -1.19420004      -0.33579999      -0.00000199      -0.00000068      -0.00000039
18
Properties=species:S:1:pos:R:3:forces:R:3 energy=-10474.3466796875 pbc="F F F"
C       -0.01740000       1.48790002      -0.14600000       0.00000066       0.00000060      -0.00000003
O        1.23500001       1.61259997       0.55680001      -0.00000008       0.00000095       0.00000072
C        1.46060002       0.18940000       0.49610001      -0.00000038      -0.00000132       0.00000053
C        0.02390000      -0.05680000      -0.01370000      -0.00000110      -0.00000056      -0.00000034
C       -0.97399998      -0.71300000       0.94620001       0.00000159      -0.00000069       0.00000074
C       -2.03819990      -1.25909996      -0.01460000      -0.00000034      -0.00000010      -0.00000210
C       -1.16939998      -1.68859994      -1.20009995       0.00000020      -0.00000048      -0.00000113
O       -0.07600000      -0.76789999      -1.23549998       0.00000141       0.00000169       0.00000001
H       -0.83179998       2.02220011       0.35859999       0.00000099      -0.00000180      -0.00000110
H        0.05550000       1.82009995      -1.18959999      -0.00000185       0.00000092      -0.00000157
H        2.22580004      -0.08270000      -0.24220000      -0.00000051      -0.00000010       0.00000102
H        1.72340000      -0.23050000       1.47459996      -0.00000039       0.00000042      -0.00000001
H       -0.48420000      -1.53729999       1.47839999       0.00000056       0.00000020       0.00000009
H       -1.36049998      -0.01670000       1.69330001       0.00000092      -0.00000144       0.00000080
H       -2.62599993      -2.07979989       0.40310001       0.00000037       0.00000081      -0.00000058
H       -2.72939992      -0.46430001      -0.31560001      -0.00000048      -0.00000044       0.00000037
H       -0.78820002      -2.71140003      -1.06130004       0.00000042       0.00000105      -0.00000051
H       -1.68879998      -1.64789999      -2.16260004       0.00000206      -0.00000005      -0.00000013
16
Properties=species:S:1:pos:R:3:forces:R:3 energy=-9430.607421875 pbc="F F F"
O       -0.10810000       1.39450002      -0.06330000       0.00000125      -0.00000028      -0.00000085
C       -0.00050000       0.01650000      -0.05860000      -0.00000155      -0.00000109      -0.00000045
C        0.75089997      -0.81190002      -1.09480000      -0.00000167      -0.00000000      -0.00000012
C       -0.21390000      -2.01399994      -0.73729998      -0.00000058      -0.00000020       0.00000024
C        0.43720001      -2.80360007       0.38110000      -0.00000075      -0.00000036       0.00000102
C        0.44150001      -2.06019998       1.49189997       0.00000030       0.00000182      -0.00000050
C       -0.29910001      -0.79070002       1.23899996       0.00000049       0.00000134      -0.00000001
C       -1.13090003      -0.96770000      -0.01360000      -0.00000080      -0.00000029      -0.00000005
H        0.64990002       1.75979996       0.40640000      -0.00000175      -0.00000166      -0.00000208
H        0.53329998      -0.42219999      -2.09229994      -0.00000068       0.00000072       0.00000000
H        1.82739997      -0.97990000      -0.98140001       0.00000015       0.00000150       0.00000013
H       -0.61019999      -2.57739997      -1.58039999      -0.00000212      -0.00000053       0.00000024
H        0.94540000      -3.74810004       0.23180000      -0.00000042       0.00000245       0.00000043
H        0.93019998      -2.29690003       2.42890000      -0.00000085      -0.00000066       0.00000100
H       -0.69440001      -0.18080001       2.04340005       0.00000068      -0.00000025      -0.00000030
H       -2.20289993      -0.83520001      -0.09250000      -0.00000126      -0.00000101       0.00000102
20
Properties=species:S:1:pos:R:3:forces:R:3 energy=-10507.8408203125 pbc="F F F"
C       -0.03580000       1.51760006       0.03420000      -0.00000217       0.00000026       0.00000044
C        0.02390000      -0.00990000      -0.02060000       0.00000022      -0.00000037      -0.00000061
C        0.74320000      -0.53130001      -1.25170004       0.00000029       0.00000125      -0.00000092
O        2.08049989      -0.08530000      -1.21570003      -0.00000131       0.00000170       0.00000091
C        2.82080007      -0.53680003      -2.34100008       0.00000062       0.00000052       0.00000015
C        2.77699995      -2.06369996      -2.42869997      -0.00000037       0.00000020       0.00000021
C        1.31389999      -2.50900006      -2.37500000       0.00000055       0.00000127       0.00000139
O        0.66100001      -1.93809998      -1.24950004      -0.00000356       0.00000146      -0.00000033
H        0.97000003       1.94490004       0.03360000      -0.00000080      -0.00000045       0.00000066
H       -0.57520002       1.92649996      -0.82760000       0.00000025      -0.00000087       0.00000010
H       -0.55199999       1.85370004       0.93809998       0.00000089      -0.00000112      -0.00000021
H        0.54439998      -0.40950000       0.85630000      -0.00000089      -0.00000002      -0.00000189
H       -0.98250002      -0.44080001      -0.02270000       0.00000028      -0.00000063      -0.00000053
H        0.27129999      -0.15070000      -2.18190002       0.00000013      -0.00000018      -0.00000095
H        2.40700006      -0.09410000      -3.26370001      -0.00000005       0.00000166       0.00000036
H        3.84010005      -0.16230001      -2.21479988       0.00000172      -0.00000066      -0.00000011
H        3.25370002      -2.41260004      -3.35159993       0.00000149       0.00000150      -0.00000053
H        3.31839991      -2.49160004      -1.57850003       0.00000032      -0.00000027       0.00000087
H        0.79479998      -2.20729995      -3.30150008      -0.00000071      -0.00000018      -0.00000111
H        1.21920002      -3.59330010      -2.27340007       0.00000007       0.00000039       0.00000077
19
Properties=species:S:1:pos:R:3:forces:R:3 energy=-8920.7333984375 pbc="F F F"
C        0.02540000       1.58899999      -0.01970000       0.00000072       0.00000182       0.00000008
C       -0.16140001       0.06860000       0.04240000      -0.00000009      -0.00000165       0.00000004
C        0.60000002      -0.55610001       1.19809997      -0.00000102      -0.00000024      -0.00000009
C        0.91280001      -2.05139995       1.24969995       0.00000249      -0.00000109       0.00000133
C        2.09549999      -1.84519994       0.25310001       0.00000123       0.00000015       0.00000074
C        3.13059998      -2.50819993       1.16559994       0.00000042      -0.00000087      -0.00000084
C        2.18810010      -1.72920001       2.08520007       0.00000053      -0.00000036      -0.00000110
N        2.13080001      -0.53329998       1.09480000      -0.00000078      -0.00000110       0.00000071
H        1.08480000       1.84200001      -0.12030000      -0.00000182      -0.00000003      -0.00000144
H       -0.51380002       2.02189994      -0.86760002       0.00000043       0.00000033       0.00000151
H       -0.34529999       2.06940007       0.89260000      -0.00000161       0.00000163       0.00000142
H       -1.22630000      -0.17530000       0.15470000       0.00000034      -0.00000019       0.00000085
H        0.15770000      -0.38370001      -0.90429997       0.00000110      -0.00000061       0.00000016
H        0.27250001      -0.11660000       2.15100002       0.00000078      -0.00000163       0.00000034
H        0.25049999      -2.92030001       1.33899999       0.00000054       0.00000108       0.00000022
H        2.06229997      -1.80999994      -0.83609998      -0.00000012      -0.00000000      -0.00000025
H        3.10290003      -3.59850001       1.23539996       0.00000052      -0.00000014       0.00000134
H        4.15339994      -2.12980008       1.08949995      -0.00000035      -0.00000041       0.00000034
H        2.24410009      -1.54439998       3.15969992      -0.00000095      -0.00000023      -0.00000123
12
Properties=species:S:1:pos:R:3:forces:R:3 energy=-10271.2099609375 pbc="F F F"
O        0.00470000       0.01720000       0.16190000       0.00000211      -0.00000100       0.00000088
C       -0.01390000       1.19490004       0.02460000      -0.00000057      -0.00000017       0.00000032
N       -1.20000005       2.02740002      -0.07210000       0.00000159       0.00000074       0.00000062
C       -0.83319998       3.33340001       0.51749998       0.00000044      -0.00000115       0.00000121
C       -0.83359998       3.16260004      -0.94669998       0.00000139      -0.00000127      -0.00000122
C        0.74040002       3.18700004      -0.94999999       0.00000091       0.00000089      -0.00000143
C        0.74080002       3.35780001       0.51419997       0.00000060       0.00000008      -0.00000113
N        1.14549994       2.06380010      -0.07710000       0.00000239       0.00000055       0.00000090
H       -1.51450002       3.81680012       1.20239997       0.00000086       0.00000091       0.00000102
H       -1.51540005       3.47550011      -1.72399998       0.00000011       0.00000116       0.00000129
H        1.40880001       3.52080011      -1.73020005       0.00000011      -0.00000078       0.00000133
H        1.40970004       3.86209989       1.19620001       0.00000112       0.00000003      -0.00000017
14
Properties=species:S:1:pos:R:3:forces:R:3 energy=-11211.533203125 pbc="F F F"
C       -0.56000000       0.83600003       0.16769999       0.00000210      -0.00000097      -0.00000106
O        0.78649998       0.69370002      -0.30870000      -0.00000011       0.00000009       0.00000055
C        0.98549998      -0.32609999      -1.16040003      -0.00000008       0.00000014      -0.00000072
C        0.60589999      -1.65499997      -1.21399999      -0.00000138      -0.00000091      -0.00000072
N       -0.24339999      -2.36549997      -0.34320000       0.00000158       0.00000039       0.00000023
N        1.16489995      -2.20549989      -2.32680011       0.00000065      -0.00000052       0.00000031
N        1.87450004      -1.31169999      -2.96029997      -0.00000133       0.00000036      -0.00000018
N        1.77470005      -0.16920000      -2.25180006       0.00000057      -0.00000166      -0.00000009
H       -0.52899998       1.62259996       0.92240000      -0.00000147      -0.00000152       0.00000065
H       -1.22409999       1.13290000      -0.65170002       0.00000073       0.00000120       0.00000170
H       -0.92420000      -0.09890000       0.60200000      -0.00000087      -0.00000028       0.00000011
H        0.22210000      -2.60010004       0.52829999       0.00000041       0.00000063       0.00000052
H       -0.51319999      -3.23699999      -0.78820002       0.00000115      -0.00000023      -0.00000074
H        2.25740004       0.66380000      -2.54920006      -0.00000075       0.00000068       0.00000035
12
Properties=species:S:1:pos:R:3:forces:R:3 energy=-10169.220703125 pbc="F F F"
N       -0.28880000      -0.68519998      -1.23730004      -0.00000067       0.00000025       0.00000022
C       -0.15290000       0.17720000      -0.48089999      -0.00000008       0.00000033       0.00000019
C        0.06400000       1.29069996       0.44250000       0.00000000       0.00000063       0.00000112
C        1.41199994       1.93079996       0.25839999       0.00000001       0.00000179      -0.00000223
C        2.10739994       2.85890007       0.99830002       0.00000116      -0.00000048      -0.00000005
N        3.28810000       3.12299991       0.37329999      -0.00000001      -0.00000021       0.00000000
N        3.36649990       2.40939999      -0.71230000       0.00000140      -0.00000154       0.00000008
N        2.23329997       1.68760002      -0.79070002       0.00000074       0.00000078      -0.00000044
H       -0.73710001       2.02480006       0.29020000      -0.00000023      -0.00000086       0.00000240
H       -0.04240000       0.92430001       1.46959996      -0.00000128       0.00000055      -0.00000117
H        1.83329999       3.34060001       1.92309999       0.00000045       0.00000152       0.00000013
H        2.09649992       1.04429996      -1.55700004      -0.00000065      -0.00000053      -0.00000031
14
Properties=species:S:1:pos:R:3:forces:R:3 energy=-12892.666015625 pbc="F F F"
O       -0.04020000       1.32620001       0.21619999       0.00000022       0.00000200      -0.00000036
N        0.01600000      -0.03820000      -0.01600000      -0.00000104      -0.00000278       0.00000122
C       -1.15540004      -0.55930001      -0.06190000      -0.00000229      -0.00000023       0.00000061
C       -2.49200010       0.02370000       0.05180000       0.00000074       0.00000220      -0.00000139
C       -3.43379998      -0.93360001       0.01260000       0.00000095       0.00000110      -0.00000010
C       -2.84170008      -2.31780005      -0.02820000       0.00000019       0.00000019       0.00000005
O       -3.40079999      -3.14479995      -1.02079999      -0.00000056      -0.00000151       0.00000120
C       -1.34679997      -2.03069997      -0.28380001       0.00000051       0.00000111       0.00000127
O       -0.55989999      -2.85859990      -0.66520000       0.00000017      -0.00000149       0.00000130
H        0.89050001       1.57900000       0.22540000       0.00000046       0.00000207      -0.00000032
H       -2.66330004       1.08729994       0.13789999      -0.00000099      -0.00000130       0.00000176
H       -4.50369978      -0.76789999       0.04420000       0.00000038      -0.00000152      -0.00000071
H       -2.92969990      -2.78769994       0.96969998       0.00000033       0.00000152      -0.00000082
H       -2.70930004      -3.77509999      -1.26499999       0.00000177      -0.00000090      -0.00000169
14
Properties=species:S:1:pos:R:3:forces:R:3 energy=-11780.2958984375 pbc="F F F"
N       -0.06410000       1.32480001       0.00970000       0.00000216       0.00000080      -0.00000097
C       -0.02370000       0.06890000       0.00300000       0.00000057      -0.00000000      -0.00000037
O        1.08150005      -0.73830003      -0.00640000      -0.00000090       0.00000044       0.00000133
C        0.71969998      -2.14089990      -0.01200000       0.00000081      -0.00000047       0.00000009
C       -0.77450001      -2.09389997      -0.00480000       0.00000123       0.00000038       0.00000030
N       -1.79560006      -2.90210009      -0.00420000      -0.00000039      -0.00000153       0.00000131
C       -2.89289999      -2.04609990       0.00550000       0.00000078      -0.00000117      -0.00000078
C       -2.51250005      -0.72820002       0.01050000      -0.00000116      -0.00000002       0.00000013
N       -1.13390005      -0.77829999       0.00370000       0.00000324       0.00000136      -0.00000042
H        0.87489998       1.71850002       0.00730000      -0.00000016       0.00000057       0.00000094
H        1.14069998      -2.60949993      -0.90719998       0.00000148      -0.00000108      -0.00000018
H        1.14900005      -2.61879992       0.87430000      -0.00000087      -0.00000245      -0.00000008
H       -3.89849997      -2.43810010       0.00820000      -0.00000178       0.00000185      -0.00000199
H       -3.05430007       0.20090000       0.01780000      -0.00000115      -0.00000043      -0.00000040
15
Properties=species:S:1:pos:R:3:forces:R:3 energy=-12354.6005859375 pbc="F F F"
C       -0.00240000       1.52789998       0.17670000      -0.00000014       0.00000080       0.00000151
C        0.01960000       0.04880000       0.01000000      -0.00000005      -0.00000128       0.00000046
C        0.01070000      -0.69749999      -1.13240004      -0.00000146      -0.00000019       0.00000044
O        0.04040000      -2.02909994      -0.76470000       0.00000010       0.00000152       0.00000049
C        0.06460000      -1.99960005       0.58130002       0.00000143       0.00000077       0.00000142
N        0.05520000      -0.81620002       1.10119998      -0.00000090       0.00000183       0.00000106
C       -0.02200000      -0.34970000      -2.56410003       0.00000116       0.00000080       0.00000005
N       -0.01960000      -1.41450000      -3.41490006      -0.00000016       0.00000051       0.00000207
O       -0.04990000       0.81040001      -2.94169998      -0.00000023       0.00000025      -0.00000133
H        0.88590002       1.86049998       0.72420001      -0.00000072      -0.00000081       0.00000090
H       -0.03380000       2.01379991      -0.79809999       0.00000273       0.00000054       0.00000137
H       -0.87489998       1.82930005       0.76620001       0.00000052       0.00000090       0.00000204
H        0.09030000      -2.95169997       1.08870006       0.00000034       0.00000088      -0.00000011
H        0.00040000      -2.36190009      -3.08170009       0.00000072       0.00000025      -0.00000028
H       -0.04400000      -1.23000002      -4.40329981       0.00000029       0.00000049      -0.00000202
12
Properties=species:S:1:pos:R:3:forces:R:3 energy=-11748.30078125 pbc="F F F"
O        0.11060000       1.31630003       0.07120000      -0.00000010      -0.00000006      -0.00000066
C        0.07090000      -0.01820000       0.05160000      -0.00000122      -0.00000102       0.00000065
N        0.07750000      -0.62570000      -1.13000000       0.00000021       0.00000046       0.00000046
C        0.03670000      -1.96200001      -1.10080004      -0.00000073       0.00000106      -0.00000147
N       -0.00930000      -2.74839997      -0.03000000      -0.00000047       0.00000101       0.00000017
C       -0.01470000      -2.10479999       1.14730000      -0.00000072       0.00000257      -0.00000032
C        0.02430000      -0.72780001       1.25800002       0.00000099       0.00000045       0.00000032
C        0.04390000      -2.62260008      -2.38870001       0.00000141      -0.00000016      -0.00000008
N        0.04970000      -3.14619994      -3.41869998       0.00000039       0.00000063       0.00000117
H        0.13880000       1.61269999      -0.85089999       0.00000022       0.00000025       0.00000023
H       -0.05210000      -2.73119998       2.03419995      -0.00000154      -0.00000002      -0.00000075
H        0.01970000      -0.21529999       2.21070004      -0.00000003       0.00000085      -0.00000092
18
Properties=species:S:1:pos:R:3:forces:R:3 energy=-10833.94921875 pbc="F F F"
C        0.15220000       1.47850001      -0.04660000      -0.00000054      -0.00000000      -0.00000209
N        0.03880000       0.03210000      -0.01090000      -0.00000063       0.00000146      -0.00000086
C        0.03060000      -0.80760002      -1.10909998       0.00000063       0.00000059       0.00000041
C       -0.12300000      -2.07170010      -0.61030000      -0.00000025       0.00000053      -0.00000260
N       -0.20990001      -2.03699994       0.75940001       0.00000056       0.00000044       0.00000068
C       -0.11550000      -0.76349998       1.09089994       0.00000073      -0.00000057      -0.00000025
C       -0.16830000      -0.26589999       2.47970009      -0.00000049       0.00000135      -0.00000015
C       -1.22710001      -0.79689997       3.39129996      -0.00000053      -0.00000018       0.00000158